<?xml version="1.0" encoding="UTF-8"?>

<!-- generated on 2024-04-24 00:07:13 by Eclipse SUMO GUI Version 1.19.0
<configuration xmlns:xsi="http://www.w3.org/2001/XMLSchema-instance" xsi:noNamespaceSchemaLocation="http://sumo.dlr.de/xsd/sumoConfiguration.xsd">

    <input>
        <net-file value="./maps/chmd/../../../../../Sumo/2024-04-24-00-03-38/osm.net.xml.gz"/>
        <route-files value="./maps/chmd/../../../../../Sumo/2024-04-24-00-03-38/osm.passenger.trips.xml"/>
        <additional-files value="./maps/chmd/../../../../../Sumo/2024-04-24-00-03-38/osm.poly.xml.gz"/>
    </input>

    <output>
        <tripinfo-output value="tripinfo.xml"/>
    </output>

    <processing>
        <ignore-route-errors value="true"/>
    </processing>

    <routing>
        <device.rerouting.adaptation-steps value="18"/>
        <device.rerouting.adaptation-interval value="10"/>
    </routing>

    <report>
        <verbose value="true"/>
        <duration-log.statistics value="true"/>
        <no-step-log value="true"/>
    </report>

    <traci_server>
        <remote-port value="55584"/>
    </traci_server>

    <gui_only>
        <gui-settings-file value="./maps/chmd/../../../../../Sumo/2024-04-24-00-03-38/osm.view.xml"/>
    </gui_only>

</configuration>
-->

<tripinfos xmlns:xsi="http://www.w3.org/2001/XMLSchema-instance" xsi:noNamespaceSchemaLocation="http://sumo.dlr.de/xsd/tripinfo_file.xsd">
</tripinfos>
